<?xml version="1.0" encoding="UTF-8"?>

<!-- generated on 2025-09-02 10:45:53 by Eclipse SUMO GUI Version 1.23.1
<sumoConfiguration xmlns:xsi="http://www.w3.org/2001/XMLSchema-instance" xsi:noNamespaceSchemaLocation="http://sumo.dlr.de/xsd/sumoConfiguration.xsd">

    <input>
        <net-file value="osm.net.xml.gz"/>
        <route-files value="osm.passenger.trips.xml,osm.truck.trips.xml"/>
        <additional-files value="output.add.xml"/>
    </input>

    <output>
        <tripinfo-output value="tripinfos.xml"/>
        <statistic-output value="stats.xml"/>
    </output>

    <processing>
        <ignore-route-errors value="true"/>
        <tls.actuated.jam-threshold value="30"/>
    </processing>

    <routing>
        <device.rerouting.adaptation-steps value="18"/>
        <device.rerouting.adaptation-interval value="10"/>
    </routing>

    <report>
        <verbose value="true"/>
        <duration-log.statistics value="true"/>
        <no-step-log value="true"/>
    </report>

    <gui_only>
        <gui-settings-file value="osm.view.xml"/>
    </gui_only>

</sumoConfiguration>
-->

<tripinfos xmlns:xsi="http://www.w3.org/2001/XMLSchema-instance" xsi:noNamespaceSchemaLocation="http://sumo.dlr.de/xsd/tripinfo_file.xsd">
    <tripinfo id="veh1" depart="4.00" departLane="11819330_0" departPos="5.10" departSpeed="14.68" departDelay="0.16" arrival="51.00" arrivalLane="511352037#0_0" arrivalPos="62.28" arrivalSpeed="13.59" duration="47.00" routeLength="656.93" waitingTime="0.00" waitingCount="0" stopTime="0.00" timeLoss="1.85" rerouteNo="1" devices="tripinfo_veh1 routing_veh1" vType="veh_passenger" speedFactor="0.94" vaporized=""/>
    <tripinfo id="veh2" depart="8.00" departLane="511352038_0" departPos="5.10" departSpeed="0.00" departDelay="0.32" arrival="51.00" arrivalLane="-11819330_0" arrivalPos="478.29" arrivalSpeed="15.20" duration="43.00" routeLength="586.26" waitingTime="0.00" waitingCount="0" stopTime="0.00" timeLoss="5.78" rerouteNo="0" devices="tripinfo_veh2 routing_veh2" vType="veh_passenger" speedFactor="1.03" vaporized=""/>
    <tripinfo id="veh0" depart="0.00" departLane="-511352035_1" departPos="5.10" departSpeed="11.85" departDelay="0.00" arrival="54.00" arrivalLane="-11819330_0" arrivalPos="478.29" arrivalSpeed="15.71" duration="54.00" routeLength="732.15" waitingTime="1.00" waitingCount="1" stopTime="0.00" timeLoss="8.15" rerouteNo="1" devices="tripinfo_veh0 routing_veh0" vType="veh_passenger" speedFactor="1.06" vaporized=""/>
    <tripinfo id="truck0" depart="0.00" departLane="-511352036#2_0" departPos="7.20" departSpeed="0.00" departDelay="0.00" arrival="60.00" arrivalLane="-11819330_0" arrivalPos="478.29" arrivalSpeed="15.61" duration="60.00" routeLength="677.33" waitingTime="7.00" waitingCount="1" stopTime="0.00" timeLoss="15.84" rerouteNo="1" devices="tripinfo_truck0 routing_truck0" vType="truck_truck" speedFactor="1.01" vaporized=""/>
    <tripinfo id="truck3" depart="18.00" departLane="-511352050_1" departPos="7.20" departSpeed="0.00" departDelay="0.72" arrival="69.00" arrivalLane="-11819330_0" arrivalPos="478.29" arrivalSpeed="15.19" duration="51.00" routeLength="654.26" waitingTime="0.00" waitingCount="0" stopTime="0.00" timeLoss="9.01" rerouteNo="1" devices="tripinfo_truck3 routing_truck3" vType="truck_truck" speedFactor="1.01" vaporized=""/>
    <tripinfo id="veh4" depart="16.00" departLane="-511352035_1" departPos="5.10" departSpeed="11.69" departDelay="0.64" arrival="73.00" arrivalLane="-11819330_1" arrivalPos="478.29" arrivalSpeed="15.90" duration="57.00" routeLength="732.15" waitingTime="1.00" waitingCount="1" stopTime="0.00" timeLoss="10.58" rerouteNo="1" devices="tripinfo_veh4 routing_veh4" vType="veh_passenger" speedFactor="1.05" vaporized=""/>
    <tripinfo id="veh6" depart="24.00" departLane="-511352050_0" departPos="5.10" departSpeed="0.00" departDelay="0.96" arrival="74.00" arrivalLane="-11819330_0" arrivalPos="478.29" arrivalSpeed="14.62" duration="50.00" routeLength="656.36" waitingTime="0.00" waitingCount="0" stopTime="0.00" timeLoss="5.27" rerouteNo="1" devices="tripinfo_veh6 routing_veh6" vType="veh_passenger" speedFactor="0.94" vaporized=""/>
    <tripinfo id="truck4" depart="24.00" departLane="-511352035_1" departPos="7.20" departSpeed="11.01" departDelay="0.96" arrival="76.00" arrivalLane="-11819330_1" arrivalPos="478.29" arrivalSpeed="15.32" duration="52.00" routeLength="730.05" waitingTime="0.00" waitingCount="0" stopTime="0.00" timeLoss="2.90" rerouteNo="1" devices="tripinfo_truck4 routing_truck4" vType="truck_truck" speedFactor="0.98" vaporized=""/>
    <tripinfo id="veh10" depart="39.00" departLane="11819330_1" departPos="5.10" departSpeed="16.39" departDelay="0.60" arrival="77.00" arrivalLane="-511352038_0" arrivalPos="85.51" arrivalSpeed="16.32" duration="38.00" routeLength="586.07" waitingTime="0.00" waitingCount="0" stopTime="0.00" timeLoss="1.48" rerouteNo="0" devices="tripinfo_veh10 routing_veh10" vType="veh_passenger" speedFactor="1.05" vaporized=""/>
    <tripinfo id="veh5" depart="20.00" departLane="11819330_0" departPos="5.10" departSpeed="13.87" departDelay="0.80" arrival="78.00" arrivalLane="511352035_0" arrivalPos="43.01" arrivalSpeed="9.13" duration="58.00" routeLength="732.36" waitingTime="0.00" waitingCount="0" stopTime="0.00" timeLoss="2.62" rerouteNo="1" devices="tripinfo_veh5 routing_veh5" vType="veh_passenger" speedFactor="0.89" vaporized=""/>
    <tripinfo id="veh8" depart="31.00" departLane="-511352035_1" departPos="5.10" departSpeed="12.19" departDelay="0.28" arrival="78.00" arrivalLane="-11819330_1" arrivalPos="478.29" arrivalSpeed="15.81" duration="47.00" routeLength="732.15" waitingTime="0.00" waitingCount="0" stopTime="0.00" timeLoss="2.47" rerouteNo="1" devices="tripinfo_veh8 routing_veh8" vType="veh_passenger" speedFactor="1.09" vaporized=""/>
    <tripinfo id="truck6" depart="35.00" departLane="11819330_0" departPos="7.20" departSpeed="16.58" departDelay="0.44" arrival="79.00" arrivalLane="54349866_0" arrivalPos="281.06" arrivalSpeed="23.01" duration="44.00" routeLength="779.45" waitingTime="0.00" waitingCount="0" stopTime="0.00" timeLoss="1.85" rerouteNo="0" devices="tripinfo_truck6 routing_truck6" vType="truck_truck" speedFactor="1.06" vaporized=""/>
    <tripinfo id="veh3" depart="12.00" departLane="-511352036#2_0" departPos="5.10" departSpeed="0.00" departDelay="0.48" arrival="84.00" arrivalLane="-11819330_0" arrivalPos="478.29" arrivalSpeed="12.09" duration="72.00" routeLength="679.43" waitingTime="10.00" waitingCount="1" stopTime="0.00" timeLoss="18.95" rerouteNo="1" devices="tripinfo_veh3 routing_veh3" vType="veh_passenger" speedFactor="0.83" vaporized=""/>
    <tripinfo id="veh7" depart="27.00" departLane="-511352035_2" departPos="5.10" departSpeed="9.58" departDelay="0.12" arrival="87.00" arrivalLane="-11819330_0" arrivalPos="478.29" arrivalSpeed="12.81" duration="60.00" routeLength="732.15" waitingTime="0.00" waitingCount="0" stopTime="0.00" timeLoss="3.26" rerouteNo="1" devices="tripinfo_veh7 routing_veh7" vType="veh_passenger" speedFactor="0.86" vaporized=""/>
    <tripinfo id="truck1" depart="6.00" departLane="54358147_0" departPos="7.20" departSpeed="23.14" departDelay="0.24" arrival="88.00" arrivalLane="-11819330_1" arrivalPos="478.29" arrivalSpeed="15.74" duration="82.00" routeLength="682.49" waitingTime="31.00" waitingCount="1" stopTime="0.00" timeLoss="42.71" rerouteNo="0" devices="tripinfo_truck1 routing_truck1" vType="truck_truck" speedFactor="1.04" vaporized=""/>
    <tripinfo id="truck2" depart="12.00" departLane="54358147_0" departPos="7.20" departSpeed="23.80" departDelay="0.48" arrival="90.00" arrivalLane="-11819330_0" arrivalPos="478.29" arrivalSpeed="16.71" duration="78.00" routeLength="682.49" waitingTime="26.00" waitingCount="1" stopTime="0.00" timeLoss="39.90" rerouteNo="0" devices="tripinfo_truck2 routing_truck2" vType="truck_truck" speedFactor="1.07" vaporized=""/>
    <tripinfo id="veh12" depart="47.00" departLane="11819330_0" departPos="5.10" departSpeed="15.51" departDelay="0.92" arrival="92.00" arrivalLane="511352037#0_0" arrivalPos="62.28" arrivalSpeed="15.36" duration="45.00" routeLength="656.93" waitingTime="0.00" waitingCount="0" stopTime="0.00" timeLoss="2.05" rerouteNo="1" devices="tripinfo_veh12 routing_veh12" vType="veh_passenger" speedFactor="0.99" vaporized=""/>
    <tripinfo id="veh11" depart="43.00" departLane="-511352035_2" departPos="5.10" departSpeed="12.55" departDelay="0.76" arrival="94.00" arrivalLane="-11819330_0" arrivalPos="478.29" arrivalSpeed="17.14" duration="51.00" routeLength="732.15" waitingTime="0.00" waitingCount="0" stopTime="0.00" timeLoss="7.46" rerouteNo="1" devices="tripinfo_veh11 routing_veh11" vType="veh_passenger" speedFactor="1.12" vaporized=""/>
    <tripinfo id="veh9" depart="35.00" departLane="-511352035_1" departPos="5.10" departSpeed="11.47" departDelay="0.44" arrival="98.00" arrivalLane="-11819330_0" arrivalPos="478.29" arrivalSpeed="15.25" duration="63.00" routeLength="732.15" waitingTime="8.00" waitingCount="1" stopTime="0.00" timeLoss="15.52" rerouteNo="1" devices="tripinfo_veh9 routing_veh9" vType="veh_passenger" speedFactor="1.03" vaporized=""/>
    <tripinfo id="truck9" depart="52.00" departLane="11819330_0" departPos="7.20" departSpeed="15.16" departDelay="0.16" arrival="99.00" arrivalLane="511352036#0_0" arrivalPos="8.54" arrivalSpeed="10.68" duration="47.00" routeLength="679.23" waitingTime="0.00" waitingCount="0" stopTime="0.00" timeLoss="1.09" rerouteNo="1" devices="tripinfo_truck9 routing_truck9" vType="truck_truck" speedFactor="0.97" vaporized=""/>
    <tripinfo id="truck5" depart="29.00" departLane="11819330_1" departPos="7.20" departSpeed="16.29" departDelay="0.20" arrival="102.00" arrivalLane="54358148_0" arrivalPos="100.85" arrivalSpeed="18.20" duration="73.00" routeLength="833.86" waitingTime="10.00" waitingCount="1" stopTime="0.00" timeLoss="23.79" rerouteNo="1" devices="tripinfo_truck5 routing_truck5" vType="truck_truck" speedFactor="1.04" vaporized=""/>
    <tripinfo id="truck7" depart="41.00" departLane="-511352035_1" departPos="7.20" departSpeed="11.27" departDelay="0.68" arrival="104.00" arrivalLane="-11819330_1" arrivalPos="478.29" arrivalSpeed="15.21" duration="63.00" routeLength="730.05" waitingTime="4.00" waitingCount="1" stopTime="0.00" timeLoss="15.30" rerouteNo="1" devices="tripinfo_truck7 routing_truck7" vType="truck_truck" speedFactor="1.01" vaporized=""/>
    <tripinfo id="veh13" depart="50.00" departLane="-511352035_2" departPos="5.10" departSpeed="10.36" departDelay="0.08" arrival="105.00" arrivalLane="-11819330_0" arrivalPos="478.29" arrivalSpeed="14.22" duration="55.00" routeLength="732.15" waitingTime="0.00" waitingCount="0" stopTime="0.00" timeLoss="2.72" rerouteNo="1" devices="tripinfo_veh13 routing_veh13" vType="veh_passenger" speedFactor="0.93" vaporized=""/>
    <tripinfo id="veh14" depart="54.00" departLane="11819330_1" departPos="5.10" departSpeed="13.75" departDelay="0.24" arrival="105.00" arrivalLane="511352037#0_0" arrivalPos="62.28" arrivalSpeed="13.50" duration="51.00" routeLength="656.93" waitingTime="0.00" waitingCount="0" stopTime="0.00" timeLoss="2.55" rerouteNo="1" devices="tripinfo_veh14 routing_veh14" vType="veh_passenger" speedFactor="0.88" vaporized=""/>
    <tripinfo id="truck8" depart="47.00" departLane="11819330_1" departPos="7.20" departSpeed="15.55" departDelay="0.92" arrival="105.00" arrivalLane="54358148_0" arrivalPos="100.85" arrivalSpeed="19.75" duration="58.00" routeLength="833.86" waitingTime="0.00" waitingCount="0" stopTime="0.00" timeLoss="6.03" rerouteNo="1" devices="tripinfo_truck8 routing_truck8" vType="truck_truck" speedFactor="0.99" vaporized=""/>
    <tripinfo id="veh16" depart="62.00" departLane="-511352050_1" departPos="5.10" departSpeed="0.00" departDelay="0.56" arrival="112.00" arrivalLane="-11819330_0" arrivalPos="478.29" arrivalSpeed="13.37" duration="50.00" routeLength="656.36" waitingTime="0.00" waitingCount="0" stopTime="0.00" timeLoss="5.14" rerouteNo="1" devices="tripinfo_veh16 routing_veh16" vType="veh_passenger" speedFactor="0.94" vaporized=""/>
    <tripinfo id="truck13" depart="75.00" departLane="11819330_0" departPos="7.20" departSpeed="15.96" departDelay="0.12" arrival="117.00" arrivalLane="511352037#0_0" arrivalPos="62.28" arrivalSpeed="15.49" duration="42.00" routeLength="654.83" waitingTime="0.00" waitingCount="0" stopTime="0.00" timeLoss="0.86" rerouteNo="1" devices="tripinfo_truck13 routing_truck13" vType="truck_truck" speedFactor="1.02" vaporized=""/>
    <tripinfo id="veh15" depart="58.00" departLane="-511352035_1" departPos="5.10" departSpeed="10.52" departDelay="0.40" arrival="121.00" arrivalLane="-11819330_0" arrivalPos="478.29" arrivalSpeed="14.49" duration="63.00" routeLength="732.15" waitingTime="2.00" waitingCount="1" stopTime="0.00" timeLoss="11.02" rerouteNo="1" devices="tripinfo_veh15 routing_veh15" vType="veh_passenger" speedFactor="0.94" vaporized=""/>
    <tripinfo id="veh18" depart="70.00" departLane="-511352035_1" departPos="5.10" departSpeed="11.38" departDelay="0.88" arrival="121.00" arrivalLane="-11819330_1" arrivalPos="478.29" arrivalSpeed="15.76" duration="51.00" routeLength="732.15" waitingTime="0.00" waitingCount="0" stopTime="0.00" timeLoss="2.96" rerouteNo="1" devices="tripinfo_veh18 routing_veh18" vType="veh_passenger" speedFactor="1.02" vaporized=""/>
    <tripinfo id="truck10" depart="58.00" departLane="-511352035_2" departPos="7.20" departSpeed="10.52" departDelay="0.40" arrival="123.00" arrivalLane="-11819330_0" arrivalPos="478.29" arrivalSpeed="14.45" duration="65.00" routeLength="730.05" waitingTime="4.00" waitingCount="1" stopTime="0.00" timeLoss="13.61" rerouteNo="1" devices="tripinfo_truck10 routing_truck10" vType="truck_truck" speedFactor="0.94" vaporized=""/>
    <tripinfo id="veh19" depart="73.00" departLane="-511352035_2" departPos="5.10" departSpeed="11.29" departDelay="0.04" arrival="124.00" arrivalLane="-11819330_1" arrivalPos="478.29" arrivalSpeed="15.38" duration="51.00" routeLength="732.15" waitingTime="0.00" waitingCount="0" stopTime="0.00" timeLoss="2.51" rerouteNo="1" devices="tripinfo_veh19 routing_veh19" vType="veh_passenger" speedFactor="1.01" vaporized=""/>
    <tripinfo id="truck11" depart="64.00" departLane="11819330_1" departPos="7.20" departSpeed="14.92" departDelay="0.64" arrival="124.00" arrivalLane="54358148_0" arrivalPos="100.85" arrivalSpeed="20.18" duration="60.00" routeLength="833.86" waitingTime="0.00" waitingCount="0" stopTime="0.00" timeLoss="5.62" rerouteNo="1" devices="tripinfo_truck11 routing_truck11" vType="truck_truck" speedFactor="0.95" vaporized=""/>
    <tripinfo id="veh17" depart="66.00" departLane="11819330_1" departPos="5.10" departSpeed="16.61" departDelay="0.72" arrival="125.00" arrivalLane="54358148_0" arrivalPos="100.85" arrivalSpeed="20.74" duration="59.00" routeLength="835.96" waitingTime="0.00" waitingCount="0" stopTime="0.00" timeLoss="14.64" rerouteNo="1" devices="tripinfo_veh17 routing_veh17" vType="veh_passenger" speedFactor="1.16" vaporized=""/>
    <tripinfo id="veh22" depart="85.00" departLane="511352038_0" departPos="5.10" departSpeed="0.00" departDelay="0.52" arrival="135.00" arrivalLane="-11819330_0" arrivalPos="478.29" arrivalSpeed="12.33" duration="50.00" routeLength="586.26" waitingTime="0.00" waitingCount="0" stopTime="0.00" timeLoss="4.54" rerouteNo="0" devices="tripinfo_veh22 routing_veh22" vType="veh_passenger" speedFactor="0.83" vaporized=""/>
    <tripinfo id="truck14" depart="82.00" departLane="11819330_0" departPos="7.20" departSpeed="10.11" departDelay="1.36" arrival="135.00" arrivalLane="511352036#0_0" arrivalPos="8.54" arrivalSpeed="10.85" duration="53.00" routeLength="679.23" waitingTime="0.00" waitingCount="0" stopTime="0.00" timeLoss="9.28" rerouteNo="1" devices="tripinfo_truck14 routing_truck14" vType="truck_truck" speedFactor="1.01" vaporized=""/>
    <tripinfo id="truck12" depart="70.00" departLane="54358147_0" departPos="7.20" departSpeed="21.27" departDelay="0.88" arrival="137.00" arrivalLane="-11819330_0" arrivalPos="478.29" arrivalSpeed="14.65" duration="67.00" routeLength="682.49" waitingTime="14.00" waitingCount="1" stopTime="0.00" timeLoss="24.89" rerouteNo="0" devices="tripinfo_truck12 routing_truck12" vType="truck_truck" speedFactor="0.96" vaporized=""/>
    <tripinfo id="truck15" depart="87.00" departLane="11819330_0" departPos="7.20" departSpeed="15.83" departDelay="0.60" arrival="137.00" arrivalLane="54349866_0" arrivalPos="281.06" arrivalSpeed="22.06" duration="50.00" routeLength="779.45" waitingTime="0.00" waitingCount="0" stopTime="0.00" timeLoss="5.62" rerouteNo="0" devices="tripinfo_truck15 routing_truck15" vType="truck_truck" speedFactor="1.01" vaporized=""/>
    <tripinfo id="veh21" depart="81.00" departLane="11819330_0" departPos="5.10" departSpeed="13.92" departDelay="0.36" arrival="139.00" arrivalLane="511352035_0" arrivalPos="43.01" arrivalSpeed="9.01" duration="58.00" routeLength="732.36" waitingTime="0.00" waitingCount="0" stopTime="0.00" timeLoss="2.59" rerouteNo="1" devices="tripinfo_veh21 routing_veh21" vType="veh_passenger" speedFactor="0.89" vaporized=""/>
    <tripinfo id="truck16" depart="93.00" departLane="11819330_0" departPos="7.20" departSpeed="15.44" departDelay="0.84" arrival="145.00" arrivalLane="511352036#0_0" arrivalPos="8.54" arrivalSpeed="9.69" duration="52.00" routeLength="679.23" waitingTime="0.00" waitingCount="0" stopTime="0.00" timeLoss="7.23" rerouteNo="1" devices="tripinfo_truck16 routing_truck16" vType="truck_truck" speedFactor="0.99" vaporized=""/>
    <tripinfo id="veh25" depart="96.00" departLane="-511352036#2_0" departPos="5.10" departSpeed="0.00" departDelay="0.00" arrival="148.00" arrivalLane="-11819330_0" arrivalPos="478.29" arrivalSpeed="14.38" duration="52.00" routeLength="679.43" waitingTime="0.00" waitingCount="0" stopTime="0.00" timeLoss="5.27" rerouteNo="1" devices="tripinfo_veh25 routing_veh25" vType="veh_passenger" speedFactor="0.95" vaporized=""/>
    <tripinfo id="veh23" depart="89.00" departLane="11819330_0" departPos="5.10" departSpeed="13.66" departDelay="0.68" arrival="149.00" arrivalLane="511352035_0" arrivalPos="43.01" arrivalSpeed="8.99" duration="60.00" routeLength="732.36" waitingTime="0.00" waitingCount="0" stopTime="0.00" timeLoss="3.51" rerouteNo="1" devices="tripinfo_veh23 routing_veh23" vType="veh_passenger" speedFactor="0.87" vaporized=""/>
    <tripinfo id="veh28" depart="108.00" departLane="511352038_0" departPos="5.10" departSpeed="0.00" departDelay="0.49" arrival="149.00" arrivalLane="-11819330_0" arrivalPos="478.29" arrivalSpeed="16.51" duration="41.00" routeLength="586.26" waitingTime="0.00" waitingCount="0" stopTime="0.00" timeLoss="8.97" rerouteNo="0" devices="tripinfo_veh28 routing_veh28" vType="veh_passenger" speedFactor="1.18" vaporized=""/>
    <tripinfo id="veh24" depart="93.00" departLane="-511352035_1" departPos="5.10" departSpeed="10.25" departDelay="0.84" arrival="150.00" arrivalLane="-11819330_1" arrivalPos="478.29" arrivalSpeed="13.64" duration="57.00" routeLength="732.15" waitingTime="0.00" waitingCount="0" stopTime="0.00" timeLoss="3.62" rerouteNo="1" devices="tripinfo_veh24 routing_veh24" vType="veh_passenger" speedFactor="0.92" vaporized=""/>
    <tripinfo id="truck19" depart="110.00" departLane="11819330_0" departPos="7.20" departSpeed="15.30" departDelay="0.57" arrival="157.00" arrivalLane="54349866_0" arrivalPos="281.06" arrivalSpeed="21.16" duration="47.00" routeLength="779.45" waitingTime="0.00" waitingCount="0" stopTime="0.00" timeLoss="1.88" rerouteNo="0" devices="tripinfo_truck19 routing_truck19" vType="truck_truck" speedFactor="0.98" vaporized=""/>
    <tripinfo id="veh31" depart="120.00" departLane="11819330_1" departPos="5.10" departSpeed="18.34" departDelay="0.97" arrival="158.00" arrivalLane="511352037#0_1" arrivalPos="62.28" arrivalSpeed="18.25" duration="38.00" routeLength="656.93" waitingTime="0.00" waitingCount="0" stopTime="0.00" timeLoss="1.30" rerouteNo="1" devices="tripinfo_veh31 routing_veh31" vType="veh_passenger" speedFactor="1.17" vaporized=""/>
    <tripinfo id="veh26" depart="100.00" departLane="-511352035_1" departPos="5.10" departSpeed="12.65" departDelay="0.16" arrival="162.00" arrivalLane="-11819330_1" arrivalPos="478.29" arrivalSpeed="16.46" duration="62.00" routeLength="732.15" waitingTime="8.00" waitingCount="1" stopTime="0.00" timeLoss="18.62" rerouteNo="1" devices="tripinfo_veh26 routing_veh26" vType="veh_passenger" speedFactor="1.13" vaporized=""/>
    <tripinfo id="veh30" depart="116.00" departLane="-511352050_0" departPos="5.10" departSpeed="0.00" departDelay="0.81" arrival="164.00" arrivalLane="-11819330_0" arrivalPos="478.29" arrivalSpeed="15.42" duration="48.00" routeLength="656.36" waitingTime="0.00" waitingCount="0" stopTime="0.00" timeLoss="5.72" rerouteNo="1" devices="tripinfo_veh30 routing_veh30" vType="veh_passenger" speedFactor="1.01" vaporized=""/>
    <tripinfo id="veh29" depart="112.00" departLane="-511352035_2" departPos="5.10" departSpeed="12.91" departDelay="0.65" arrival="167.00" arrivalLane="-11819330_1" arrivalPos="478.29" arrivalSpeed="17.25" duration="55.00" routeLength="732.15" waitingTime="1.00" waitingCount="1" stopTime="0.00" timeLoss="12.22" rerouteNo="1" devices="tripinfo_veh29 routing_veh29" vType="veh_passenger" speedFactor="1.15" vaporized=""/>
    <tripinfo id="truck18" depart="104.00" departLane="-511352035_2" departPos="7.20" departSpeed="11.49" departDelay="0.33" arrival="167.00" arrivalLane="-11819330_0" arrivalPos="478.29" arrivalSpeed="15.59" duration="63.00" routeLength="730.05" waitingTime="6.00" waitingCount="1" stopTime="0.00" timeLoss="15.64" rerouteNo="1" devices="tripinfo_truck18 routing_truck18" vType="truck_truck" speedFactor="1.03" vaporized=""/>
    <tripinfo id="truck21" depart="121.00" departLane="11819330_0" departPos="7.20" departSpeed="15.90" departDelay="0.05" arrival="170.00" arrivalLane="511352035_0" arrivalPos="43.01" arrivalSpeed="10.95" duration="49.00" routeLength="730.26" waitingTime="0.00" waitingCount="0" stopTime="0.00" timeLoss="1.00" rerouteNo="1" devices="tripinfo_truck21 routing_truck21" vType="truck_truck" speedFactor="1.02" vaporized=""/>
    <tripinfo id="veh27" depart="104.00" departLane="-511352035_1" departPos="5.10" departSpeed="10.41" departDelay="0.33" arrival="171.00" arrivalLane="-11819330_0" arrivalPos="478.29" arrivalSpeed="14.38" duration="67.00" routeLength="732.15" waitingTime="8.00" waitingCount="1" stopTime="0.00" timeLoss="14.93" rerouteNo="1" devices="tripinfo_veh27 routing_veh27" vType="veh_passenger" speedFactor="0.93" vaporized=""/>
    <tripinfo id="veh33" depart="130.00" departLane="511352038_0" departPos="5.10" departSpeed="0.00" departDelay="3.29" arrival="172.00" arrivalLane="-11819330_1" arrivalPos="478.29" arrivalSpeed="15.02" duration="42.00" routeLength="586.26" waitingTime="0.00" waitingCount="0" stopTime="0.00" timeLoss="4.91" rerouteNo="0" devices="tripinfo_veh33 routing_veh33" vType="veh_passenger" speedFactor="1.02" vaporized=""/>
    <tripinfo id="veh34" depart="131.00" departLane="-511352050_0" departPos="5.10" departSpeed="0.00" departDelay="0.45" arrival="180.00" arrivalLane="-11819330_0" arrivalPos="478.29" arrivalSpeed="14.96" duration="49.00" routeLength="656.36" waitingTime="0.00" waitingCount="0" stopTime="0.00" timeLoss="5.55" rerouteNo="1" devices="tripinfo_veh34 routing_veh34" vType="veh_passenger" speedFactor="0.97" vaporized=""/>
    <tripinfo id="veh36" depart="139.00" departLane="-511352050_0" departPos="5.10" departSpeed="0.00" departDelay="0.77" arrival="183.00" arrivalLane="-11819330_0" arrivalPos="478.29" arrivalSpeed="17.00" duration="44.00" routeLength="656.36" waitingTime="0.00" waitingCount="0" stopTime="0.00" timeLoss="5.46" rerouteNo="1" devices="tripinfo_veh36 routing_veh36" vType="veh_passenger" speedFactor="1.10" vaporized=""/>
    <tripinfo id="truck23" depart="133.00" departLane="11819330_0" departPos="7.20" departSpeed="15.71" departDelay="0.53" arrival="183.00" arrivalLane="511352035_0" arrivalPos="43.01" arrivalSpeed="11.10" duration="50.00" routeLength="730.26" waitingTime="0.00" waitingCount="0" stopTime="0.00" timeLoss="1.07" rerouteNo="1" devices="tripinfo_truck23 routing_truck23" vType="truck_truck" speedFactor="1.00" vaporized=""/>
</tripinfos>
